# vtk DataFile Version 3.0
d-3__ created by libgimli-v1.4.0
ASCII
DATASET UNSTRUCTURED_GRID
POINTS 1119 double
2549114.2382064	5569457.7424223	434.619
2549089.781059	5569461.1362861	435.65
2549089.7810392	5569461.1362847	435.65
2549071.9450043	5569454.8777123	435.931
2549069.1769028	5569449.6397592	435.8
2549121.6078012	5569453.1911413	434.106
2549119.7307081	5569448.0135402	433.813
2549068.5274214	5569444.5453098	435.5
2549068.3729446	5569439.4843894	435.2
2549113.5569741	5569442.5449083	433.711
2549108.3930498	5569437.1446752	433.638
2549068.2184679	5569434.4234689	434.9
2549103.4370274	5569431.7585244	433.438
2549068.0639912	5569429.3625485	434.6
2549094.8278704	5569426.1249301	433.409
2549067.9095145	5569424.301628	434.3
2549092.505273	5569420.9171531	433.19
2549067.7550378	5569419.2407076	434
2549068.5905705	5569414.246845	433.7
2549096.4989357	5569416.1372049	432.809
2549069.4261031	5569409.2529823	433.4
2549141.4294876	5569414.1300975	431.038
2549139.1464906	5569408.9250028	430.788
2549070.2616358	5569404.2591197	433.1
2549136.0813863	5569403.6669323	430.561
2549071.1961695	5569399.2719629	432.8
2549130.0660538	5569398.2090296	430.363
2549072.4277059	5569394.3049234	432.5
2549115.7940429	5569392.1918646	430.656
2549074.7482527	5569389.4116475	432.2
2549109.1055041	5569386.6883626	430.569
2549080.6724338	5569384.762462	431.731
2549095.229487	5569380.6980201	430.85
2549095.2295068	5569380.6980214	430.85
2548993.0059312	5569494.9849249	380
2549191.0078134	5569508.3964887	434.9
2548993.0059312	5569494.9849249	440.9
2549191.0078134	5569508.3964887	380
2549191.3483414	5569503.3690972	380
2549191.3483414	5569503.3690972	434.6
2548993.3464592	5569489.9575334	380
2548993.3464592	5569489.9575334	440.6
2549191.6888693	5569498.3417056	380
2549191.6888693	5569498.3417056	434.3
2548993.6869872	5569484.9301418	380
2548993.6869872	5569484.9301418	440.3
2549192.0293973	5569493.3143141	380
2549192.0293973	5569493.3143141	434
2548994.0275152	5569479.9027503	380
2548994.0275152	5569479.9027503	440
2549192.3699253	5569488.2869225	380
2549192.3699253	5569488.2869225	433.7
2548994.3680432	5569474.8753587	380
2548994.3680432	5569474.8753587	439.7
2549192.7104533	5569483.259531	380
2549192.7104533	5569483.259531	433.4
2548994.7085711	5569469.8479672	380
2548994.7085711	5569469.8479672	439.4
2549193.0509813	5569478.2321395	380
2549193.0509813	5569478.2321395	433.1
2548995.0490991	5569464.8205757	380
2548995.0490991	5569464.8205757	439.1
2549193.3915093	5569473.2047479	380
2549193.3915093	5569473.2047479	432.8
2548995.3896271	5569459.7931841	380
2548995.3896271	5569459.7931841	438.8
2549089.781059	5569461.1362861	380
2549193.7320373	5569468.1773564	432.5
2549193.7320373	5569468.1773564	380
2548995.7301551	5569454.7657926	380
2548995.7301551	5569454.7657926	438.5
2549089.7810392	5569461.1362847	380
2549194.0725653	5569463.1499648	380
2549194.0725653	5569463.1499648	432.2
2549114.2382064	5569457.7424223	380
2548996.0706831	5569449.738401	380
2549071.9450043	5569454.8777123	380
2548996.0706831	5569449.738401	438.2
2549194.4130932	5569458.1225733	380
2549194.4130932	5569458.1225733	431.9
2549121.6078012	5569453.1911413	380
2548996.4112111	5569444.7110095	380
2549069.1769028	5569449.6397592	380
2548996.4112111	5569444.7110095	437.9
2549194.7536212	5569453.0951818	380
2549194.7536212	5569453.0951818	431.6
2549121.7107269	5569448.1476559	380
2548996.7517391	5569439.683618	380
2549068.5274214	5569444.5453098	380
2548996.7517391	5569439.683618	437.6
2549195.0941492	5569448.0677902	380
2549195.0941492	5569448.0677902	431.3
2549123.8134716	5569443.2396273	380
2548997.0922671	5569434.6562264	380
2549068.3729446	5569439.4843894	380
2548997.0922671	5569434.6562264	437.3
2549195.4346772	5569443.0403987	380
2549195.4346772	5569443.0403987	431
2549127.3418299	5569438.4281619	380
2548997.432795	5569429.6288349	380
2549068.2184679	5569434.4234689	380
2548997.432795	5569429.6288349	437
2549195.7752052	5569438.0130072	380
2549195.7752052	5569438.0130072	430.7
2549134.0382183	5569433.8312816	380
2548997.773323	5569424.6014433	380
2549068.0639912	5569429.3625485	380
2548997.773323	5569424.6014433	436.7
2549196.1157332	5569432.9856156	380
2549196.1157332	5569432.9856156	430.4
2549137.7843787	5569429.0345689	380
2548998.113851	5569419.5740518	380
2549067.9095145	5569424.301628	380
2548998.113851	5569419.5740518	436.4
2549196.4562612	5569427.9582241	380
2549196.4562612	5569427.9582241	430.1
2549140.7484316	5569424.1848806	380
2548998.454379	5569414.5466603	380
2549067.7550378	5569419.2407076	380
2548998.454379	5569414.5466603	436.1
2549196.7967892	5569422.9308325	380
2549196.7967892	5569422.9308325	429.8
2549143.0293781	5569419.2889224	380
2549068.5905705	5569414.246845	380
2548998.794907	5569409.5192687	380
2548998.794907	5569409.5192687	435.8
2549197.1373171	5569417.903441	380
2549197.1373171	5569417.903441	429.5
2549141.4294876	5569414.1300975	380
2549069.4261031	5569409.2529823	380
2548999.135435	5569404.4918772	380
2548999.135435	5569404.4918772	435.5
2549197.4778451	5569412.8760495	380
2549197.4778451	5569412.8760495	429.2
2549139.1464906	5569408.9250028	380
2549070.2616358	5569404.2591197	380
2548999.475963	5569399.4644856	380
2548999.475963	5569399.4644856	435.2
2549197.8183731	5569407.8486579	380
2549197.8183731	5569407.8486579	428.9
2549136.0813863	5569403.6669323	380
2549071.1961695	5569399.2719629	380
2548999.816491	5569394.4370941	380
2548999.816491	5569394.4370941	434.9
2549198.1589011	5569402.8212664	380
2549198.1589011	5569402.8212664	428.6
2549130.0660538	5569398.2090296	380
2549072.4277059	5569394.3049234	380
2549000.1570189	5569389.4097026	380
2549000.1570189	5569389.4097026	434.6
2549198.4994291	5569397.7938748	380
2549198.4994291	5569397.7938748	428.3
2549115.7940429	5569392.1918646	380
2549074.7482527	5569389.4116475	380
2549000.4975469	5569384.382311	380
2549000.4975469	5569384.382311	434.3
2549198.8399571	5569392.7664833	380
2549198.8399571	5569392.7664833	428
2549109.1055041	5569386.6883626	380
2549080.6724338	5569384.762462	380
2549000.8380749	5569379.3549195	380
2549000.8380749	5569379.3549195	434
2549095.2295068	5569380.6980214	380
2549199.1804851	5569387.7390918	427.7
2549199.1804851	5569387.7390918	380
2549001.1786029	5569374.327528	380
2549001.1786029	5569374.327528	433.7
2549095.229487	5569380.6980201	380
2549199.5210131	5569382.7117002	380
2549199.5210131	5569382.7117002	427.4
2549001.5191309	5569369.3001364	380
2549001.5191309	5569369.3001364	433.4
2549199.861541	5569377.6843087	380
2549199.861541	5569377.6843087	427.1
2549001.8596589	5569364.2727449	380
2549001.8596589	5569364.2727449	433.1
2549200.202069	5569372.6569171	380
2549200.202069	5569372.6569171	426.8
2549002.2001869	5569359.2453533	380
2549002.2001869	5569359.2453533	432.8
2549200.542597	5569367.6295256	380
2549200.542597	5569367.6295256	426.5
2549002.5407148	5569354.2179618	380
2549002.5407148	5569354.2179618	432.5
2549200.883125	5569362.6021341	380
2549200.883125	5569362.6021341	426.2
2549002.8812428	5569349.1905703	380
2549002.8812428	5569349.1905703	432.2
2549201.223653	5569357.5747425	380
2549201.223653	5569357.5747425	425.9
2549003.2217708	5569344.1631787	380
2549003.2217708	5569344.1631787	431.9
2549201.564181	5569352.547351	380
2549201.564181	5569352.547351	425.6
2549003.5622988	5569339.1357872	380
2549003.5622988	5569339.1357872	431.6
2549201.904709	5569347.5199594	380
2549201.904709	5569347.5199594	425.3
2549003.9028268	5569334.1083956	380
2549003.9028268	5569334.1083956	431.3
2549202.2452369	5569342.4925679	380
2549202.2452369	5569342.4925679	425
2549004.2433548	5569329.0810041	380
2549004.2433548	5569329.0810041	431
2549202.5857649	5569337.4651764	380
2549202.5857649	5569337.4651764	424.7
2549004.5838828	5569324.0536126	380
2549004.5838828	5569324.0536126	430.7
2549202.9262929	5569332.4377848	380
2549202.9262929	5569332.4377848	424.4
2549004.9244108	5569319.026221	380
2549004.9244108	5569319.026221	430.4
2549203.2668209	5569327.4103933	380
2549203.2668209	5569327.4103933	424.1
2549005.2649387	5569313.9988295	380
2549005.2649387	5569313.9988295	430.1
2549203.6073489	5569322.3830017	380
2549203.6073489	5569322.3830017	423.8
2549005.6054667	5569308.9714379	380
2549005.6054667	5569308.9714379	429.8
2549203.9478769	5569317.3556102	380
2549203.9478769	5569317.3556102	423.5
2549005.9459947	5569303.9440464	380
2549005.9459947	5569303.9440464	429.5
2549204.2884049	5569312.3282187	380
2549204.2884049	5569312.3282187	423.2
2549006.2865227	5569298.9166549	380
2549006.2865227	5569298.9166549	429.2
2549006.6270507	5569293.8892633	380
2549006.6270507	5569293.8892633	428.9
2549204.6289329	5569307.3008271	422.9
2549204.6289329	5569307.3008271	380
2549121.7107269	5569448.1476559	406
2549123.8134716	5569443.2396273	403
2549117.5170118	5569442.8131395	407
2549127.3418299	5569438.4281619	403.5
2549120.4295842	5569437.9599642	405.229
2549114.4545606	5569437.5552488	409.012741
2549110.5940684	5569437.2937602	416.211944
2549134.0382183	5569433.8312816	405
2549117.0651802	5569432.6816208	408.35994
2549111.157106	5569432.2814402	411.262573
2549105.4586267	5569431.8954564	416
2549137.7843787	5569429.0345689	410
2549110.1561861	5569427.1631864	412
2549102.8543816	5569426.6686021	414.895106
2549096.683148	5569426.2505965	420
2549140.7484316	5569424.1848806	415
2549118.9692146	5569422.7096756	416
2549101.0116517	5569421.4933286	418.458838
2549094.5258822	5569421.0540181	422
2549143.0293781	5569419.2889224	420
2549101.4489828	5569416.472494	422
2549141.4294876	5569414.1300975	415
2549025.5878904	5569406.2836217	434.698418
2549198.4994291	5569397.7938748	428.3
2549198.8399571	5569392.7664833	428
2549199.1804851	5569387.7390918	427.7
2549199.5210131	5569382.7117002	427.4
2549200.202069	5569372.6569171	426.8
2549200.542597	5569367.6295256	426.5
2549200.883125	5569362.6021341	426.2
2549201.223653	5569357.5747425	425.9
2549191.0078134	5569508.3964887	447
2548993.0059312	5569494.9849249	456
2548993.3464592	5569489.9575334	456
2549191.3483414	5569503.3690972	447
[...]
CELL_DATA 108
SCALARS Marker double 1
LOOKUP_TABLE default
2 2 2 2 2 2 2 2 2 2 2 2 2 2 2 2 2 2 2 2 2 2 2 2 2 2 2 2 2 2 2 2 2 2 2 2 2 2 2 2 2 2 2 2 2 2 2 2 2 2 2 2 2 2 2 2 2 2 2 2 2 2 2 2 2 2 2 2 2 2 2 2 2 2 2 2 2 2 2 2 2 2 2 2 2 2 2 2 2 2 2 2 2 2 2 2 2 2 2 2 2 2 2 2 2 2 2 2 
